 Gaussian 16, Revision C.01,
 Gaussian 16:  EM64M-G16RevC.01  3-Jul-2019

 -----------------------------------
 #p b3lyp em=gd3bj def2tzvp opt freq
 -----------------------------------

 -------------------
 Title Card Required
 -------------------
 Symbolic Z-matrix:
 Charge =  0 Multiplicity = 3

 SCF Done:  E(UB3LYP) =  -39.1665946176     A.U. after   11 cycles
 SCF Done:  E(UB3LYP) =  -39.1695786675     A.U. after   10 cycles
 SCF Done:  E(UB3LYP) =  -39.1700037263     A.U. after   10 cycles
 SCF Done:  E(UB3LYP) =  -39.1700142265     A.U. after    8 cycles
 Optimization completed.
    -- Stationary point found.
 Normal termination of Gaussian 16 at Tue Oct  4 21:36:12 2022.

 --------------------------------------------------------------------
 #P Geom=AllCheck Guess=TCheck SCRF=Check GenChk UB3LYP/def2TZVP Freq
 --------------------------------------------------------------------

 Structure from the checkpoint file:  "CH2.chk"
 -------------------
 Title Card Required
 -------------------
 Charge =  0 Multiplicity = 3

                         Standard orientation:
 ---------------------------------------------------------------------
 Center     Atomic      Atomic             Coordinates (Angstroms)
 Number     Number       Type             X           Y           Z
 ---------------------------------------------------------------------
      1          6           0       -0.000000    0.000000    0.103088
      2          1           0        0.000000    0.996459   -0.309263
      3          1           0       -0.000000   -0.996459   -0.309263
 ---------------------------------------------------------------------

 SCF Done:  E(UB3LYP) =  -39.1700142265     A.U. after    1 cycles

 The electronic state is 3-B1.
 Alpha  occ. eigenvalues --  -10.21848  -0.68297  -0.46148  -0.28295  -0.24911
 Alpha virt. eigenvalues --    0.05945   0.11550   0.18212   0.21440   0.22123
 Alpha virt. eigenvalues --    0.23370   0.41415   0.49785   0.59887   0.63794
 Alpha virt. eigenvalues --    0.64216   0.84907   0.88366   1.26908   1.36104

  Beta  occ. eigenvalues --  -10.18957  -0.60770  -0.44123
  Beta virt. eigenvalues --   -0.09298  -0.06788   0.07333   0.12359   0.19884
  Beta virt. eigenvalues --    0.24202   0.26790   0.27710   0.43749   0.52347
  Beta virt. eigenvalues --    0.63881   0.71280   0.71964   0.87302   0.91712

 Mulliken charges and spin densities:
               1          2
     1  C   -0.302871   2.046587
     2  H    0.151435  -0.023293
     3  H    0.151435  -0.023293
 Sum of Mulliken charges =   0.00000   2.00000

 Dipole moment (field-independent basis, Debye):
    X=             -0.0000    Y=              0.0000    Z=             -0.6512  Tot=              0.6512
 Quadrupole moment (field-independent basis, Debye-Ang):
   XX=             -8.3395   YY=             -5.9037   ZZ=             -7.8350
   XY=              0.0000   XZ=              0.0000   YZ=             -0.0000

  Exact polarizability:      10.385       0.000      14.010       0.000       0.000      10.458
 Approx polarizability:      11.751       0.000      16.357       0.000       0.000      12.033

                      1                      2                      3
                     A1                     A1                     B2
 Frequencies --   1058.1217              3125.2710              3362.8179
 Red. masses --      1.1371                 1.0264                 1.1386
 Frc consts  --      0.7501                 5.9066                 7.5866
 IR Inten    --     10.4616                 0.9210                 0.3145

 - Thermochemistry -
 -------------------
 Temperature   298.150 Kelvin.  Pressure   1.00000 Atm.
 Atom     1 has atomic number  6 and mass  12.00000

 Molecular mass:    14.01565 amu.
 Principal axes and moments of inertia in atomic units:
                           1         2         3
     Eigenvalues --     1.04789   7.14713   8.19502
           X           -0.00000   0.00000   1.00000
           Y            1.00000   0.00000   0.00000
           Z           -0.00000   1.00000   0.00000
 This molecule is an asymmetric top.
 Rotational symmetry number  2.
 Rotational temperatures (Kelvin)     82.65572    12.11869    10.56909
 Rotational constants (GHZ):        1722.26560   252.51254   220.22406
 Zero-point vibrational energy      45136.4 (Joules/Mol)
                                   10.78785 (Kcal/Mol)
 Vibrational temperatures:   1522.40  4496.57  4838.34
          (Kelvin)

 Zero-point correction=                           0.017192 (Hartree/Particle)
 Thermal correction to Energy=                    0.020053
 Thermal correction to Enthalpy=                  0.020998
 Thermal correction to Gibbs Free Energy=        -0.001160
 Sum of electronic and zero-point Energies=            -39.152823
 Sum of electronic and thermal Energies=               -39.149961
 Sum of electronic and thermal Enthalpies=             -39.149017
 Sum of electronic and thermal Free Energies=          -39.171174

                     E (Thermal)             CV                S
                      KCal/Mol        Cal/Mol-Kelvin    Cal/Mol-Kelvin
 Total                   12.584              6.280             46.634
 Electronic               0.000              0.000              2.183
 Translational            0.889              2.981             33.861
 Rotational               0.889              2.981             10.516
 Vibrational             10.806              0.318              0.074

 Optimization completed.
    -- Stationary point found.
 Normal termination of Gaussian 16 at Tue Oct  4 21:36:18 2022.
